LAMMPS Description

     10020  atoms
     2520  bonds
     420  angles
     0  dihedrals
     0  impropers

     7  atom types
     3  bond types
     1  angle types
     0  dihedral types
     0  improper types

  0 52.8 xlo xhi
  -1.76 51.04 ylo yhi
  -9 110 zlo zhi

Masses

1 15.9994  # O1
2 12  # C
3 15.9994  # O
4 1.008  # H
5 1.008  # H1
6 58.69  # U
7 58.69  # U1

Atoms  # full

1 1 5 0 1.0 0.0 5.0
2 1 5 0 1.741 0.0 5.0
3 2 5 0 1.0 0.0 8.0
4 2 5 0 1.741 0.0 8.0
5 3 5 0 1.0 0.0 11.0
6 3 5 0 1.741 0.0 11.0
7 4 5 0 1.0 0.0 14.0
8 4 5 0 1.741 0.0 14.0
9 5 5 0 1.0 0.0 17.0
10 5 5 0 1.741 0.0 17.0
11 6 5 0 1.0 0.0 20.0
12 6 5 0 1.741 0.0 20.0
13 7 5 0 1.0 0.0 23.0
14 7 5 0 1.741 0.0 23.0
15 8 5 0 1.0 0.0 26.0
16 8 5 0 1.741 0.0 26.0
17 9 5 0 1.0 0.0 29.0
18 9 5 0 1.741 0.0 29.0
19 10 5 0 1.0 0.0 32.0
20 10 5 0 1.741 0.0 32.0
21 11 5 0 1.0 0.0 35.0
22 11 5 0 1.741 0.0 35.0
23 12 5 0 1.0 0.0 38.0
24 12 5 0 1.741 0.0 38.0
25 13 5 0 1.0 5.2 5.0
26 13 5 0 1.741 5.2 5.0
27 14 5 0 1.0 5.2 8.0
28 14 5 0 1.741 5.2 8.0
29 15 5 0 1.0 5.2 11.0
30 15 5 0 1.741 5.2 11.0
31 16 5 0 1.0 5.2 14.0
32 16 5 0 1.741 5.2 14.0
33 17 5 0 1.0 5.2 17.0
34 17 5 0 1.741 5.2 17.0
35 18 5 0 1.0 5.2 20.0
36 18 5 0 1.741 5.2 20.0
37 19 5 0 1.0 5.2 23.0
38 19 5 0 1.741 5.2 23.0
39 20 5 0 1.0 5.2 26.0
40 20 5 0 1.741 5.2 26.0
41 21 5 0 1.0 5.2 29.0
42 21 5 0 1.741 5.2 29.0
43 22 5 0 1.0 5.2 32.0
44 22 5 0 1.741 5.2 32.0
45 23 5 0 1.0 5.2 35.0
46 23 5 0 1.741 5.2 35.0
47 24 5 0 1.0 5.2 38.0
48 24 5 0 1.741 5.2 38.0
49 25 5 0 1.0 10.4 5.0
50 25 5 0 1.741 10.4 5.0
51 26 5 0 1.0 10.4 8.0
52 26 5 0 1.741 10.4 8.0
53 27 5 0 1.0 10.4 11.0
54 27 5 0 1.741 10.4 11.0
55 28 5 0 1.0 10.4 14.0
56 28 5 0 1.741 10.4 14.0
57 29 5 0 1.0 10.4 17.0
58 29 5 0 1.741 10.4 17.0
59 30 5 0 1.0 10.4 20.0
60 30 5 0 1.741 10.4 20.0
61 31 5 0 1.0 10.4 23.0
62 31 5 0 1.741 10.4 23.0
63 32 5 0 1.0 10.4 26.0
64 32 5 0 1.741 10.4 26.0
65 33 5 0 1.0 10.4 29.0
66 33 5 0 1.741 10.4 29.0
67 34 5 0 1.0 10.4 32.0
68 34 5 0 1.741 10.4 32.0
69 35 5 0 1.0 10.4 35.0
70 35 5 0 1.741 10.4 35.0
71 36 5 0 1.0 10.4 38.0
72 36 5 0 1.741 10.4 38.0
73 37 5 0 1.0 15.600000000000001 5.0
74 37 5 0 1.741 15.600000000000001 5.0
75 38 5 0 1.0 15.600000000000001 8.0
76 38 5 0 1.741 15.600000000000001 8.0
77 39 5 0 1.0 15.600000000000001 11.0
78 39 5 0 1.741 15.600000000000001 11.0
79 40 5 0 1.0 15.600000000000001 14.0
80 40 5 0 1.741 15.600000000000001 14.0
81 41 5 0 1.0 15.600000000000001 17.0
82 41 5 0 1.741 15.600000000000001 17.0
83 42 5 0 1.0 15.600000000000001 20.0
84 42 5 0 1.741 15.600000000000001 20.0
85 43 5 0 1.0 15.600000000000001 23.0
86 43 5 0 1.741 15.600000000000001 23.0
87 44 5 0 1.0 15.600000000000001 26.0
88 44 5 0 1.741 15.600000000000001 26.0
89 45 5 0 1.0 15.600000000000001 29.0
90 45 5 0 1.741 15.600000000000001 29.0
91 46 5 0 1.0 15.600000000000001 32.0
92 46 5 0 1.741 15.600000000000001 32.0
93 47 5 0 1.0 15.600000000000001 35.0
94 47 5 0 1.741 15.600000000000001 35.0
95 48 5 0 1.0 15.600000000000001 38.0
96 48 5 0 1.741 15.600000000000001 38.0
97 49 5 0 1.0 20.8 5.0
98 49 5 0 1.741 20.8 5.0
99 50 5 0 1.0 20.8 8.0
100 50 5 0 1.741 20.8 8.0
101 51 5 0 1.0 20.8 11.0
102 51 5 0 1.741 20.8 11.0
103 52 5 0 1.0 20.8 14.0
104 52 5 0 1.741 20.8 14.0
105 53 5 0 1.0 20.8 17.0
106 53 5 0 1.741 20.8 17.0
107 54 5 0 1.0 20.8 20.0
108 54 5 0 1.741 20.8 20.0
109 55 5 0 1.0 20.8 23.0
110 55 5 0 1.741 20.8 23.0
111 56 5 0 1.0 20.8 26.0
112 56 5 0 1.741 20.8 26.0
113 57 5 0 1.0 20.8 29.0
114 57 5 0 1.741 20.8 29.0
115 58 5 0 1.0 20.8 32.0
116 58 5 0 1.741 20.8 32.0
117 59 5 0 1.0 20.8 35.0
118 59 5 0 1.741 20.8 35.0
119 60 5 0 1.0 20.8 38.0
120 60 5 0 1.741 20.8 38.0
121 61 5 0 1.0 26.0 5.0
122 61 5 0 1.741 26.0 5.0
123 62 5 0 1.0 26.0 8.0
124 62 5 0 1.741 26.0 8.0
125 63 5 0 1.0 26.0 11.0
126 63 5 0 1.741 26.0 11.0
127 64 5 0 1.0 26.0 14.0
128 64 5 0 1.741 26.0 14.0
129 65 5 0 1.0 26.0 17.0
130 65 5 0 1.741 26.0 17.0
131 66 5 0 1.0 26.0 20.0
132 66 5 0 1.741 26.0 20.0
133 67 5 0 1.0 26.0 23.0
134 67 5 0 1.741 26.0 23.0
135 68 5 0 1.0 26.0 26.0
136 68 5 0 1.741 26.0 26.0
137 69 5 0 1.0 26.0 29.0
138 69 5 0 1.741 26.0 29.0
139 70 5 0 1.0 26.0 32.0
140 70 5 0 1.741 26.0 32.0
141 71 5 0 1.0 26.0 35.0
142 71 5 0 1.741 26.0 35.0
143 72 5 0 1.0 26.0 38.0
144 72 5 0 1.741 26.0 38.0
145 73 5 0 1.0 31.2 5.0
146 73 5 0 1.741 31.2 5.0
147 74 5 0 1.0 31.2 8.0
148 74 5 0 1.741 31.2 8.0
149 75 5 0 1.0 31.2 11.0
150 75 5 0 1.741 31.2 11.0
151 76 5 0 1.0 31.2 14.0
152 76 5 0 1.741 31.2 14.0
153 77 5 0 1.0 31.2 17.0
154 77 5 0 1.741 31.2 17.0
155 78 5 0 1.0 31.2 20.0
156 78 5 0 1.741 31.2 20.0
157 79 5 0 1.0 31.2 23.0
158 79 5 0 1.741 31.2 23.0
159 80 5 0 1.0 31.2 26.0
160 80 5 0 1.741 31.2 26.0
161 81 5 0 1.0 31.2 29.0
162 81 5 0 1.741 31.2 29.0
163 82 5 0 1.0 31.2 32.0
164 82 5 0 1.741 31.2 32.0
165 83 5 0 1.0 31.2 35.0
166 83 5 0 1.741 31.2 35.0
167 84 5 0 1.0 31.2 38.0
168 84 5 0 1.741 31.2 38.0
169 85 5 0 1.0 36.4 5.0
170 85 5 0 1.741 36.4 5.0
171 86 5 0 1.0 36.4 8.0
172 86 5 0 1.741 36.4 8.0
173 87 5 0 1.0 36.4 11.0
174 87 5 0 1.741 36.4 11.0
175 88 5 0 1.0 36.4 14.0
176 88 5 0 1.741 36.4 14.0
177 89 5 0 1.0 36.4 17.0
178 89 5 0 1.741 36.4 17.0
179 90 5 0 1.0 36.4 20.0
180 90 5 0 1.741 36.4 20.0
181 91 5 0 1.0 36.4 23.0
182 91 5 0 1.741 36.4 23.0
183 92 5 0 1.0 36.4 26.0
184 92 5 0 1.741 36.4 26.0
185 93 5 0 1.0 36.4 29.0
186 93 5 0 1.741 36.4 29.0
187 94 5 0 1.0 36.4 32.0
188 94 5 0 1.741 36.4 32.0
189 95 5 0 1.0 36.4 35.0
190 95 5 0 1.741 36.4 35.0
191 96 5 0 1.0 36.4 38.0
192 96 5 0 1.741 36.4 38.0
193 97 5 0 1.0 41.6 5.0
194 97 5 0 1.741 41.6 5.0
195 98 5 0 1.0 41.6 8.0
196 98 5 0 1.741 41.6 8.0
197 99 5 0 1.0 41.6 11.0
198 99 5 0 1.741 41.6 11.0
199 100 5 0 1.0 41.6 14.0
200 100 5 0 1.741 41.6 14.0
201 101 5 0 1.0 41.6 17.0
202 101 5 0 1.741 41.6 17.0
203 102 5 0 1.0 41.6 20.0
204 102 5 0 1.741 41.6 20.0
205 103 5 0 1.0 41.6 23.0
206 103 5 0 1.741 41.6 23.0
207 104 5 0 1.0 41.6 26.0
208 104 5 0 1.741 41.6 26.0
209 105 5 0 1.0 41.6 29.0
210 105 5 0 1.741 41.6 29.0
211 106 5 0 1.0 41.6 32.0
212 106 5 0 1.741 41.6 32.0
213 107 5 0 1.0 41.6 35.0
214 107 5 0 1.741 41.6 35.0
215 108 5 0 1.0 41.6 38.0
216 108 5 0 1.741 41.6 38.0
217 109 5 0 1.0 46.800000000000004 5.0
218 109 5 0 1.741 46.800000000000004 5.0
219 110 5 0 1.0 46.800000000000004 8.0
220 110 5 0 1.741 46.800000000000004 8.0
221 111 5 0 1.0 46.800000000000004 11.0
222 111 5 0 1.741 46.800000000000004 11.0
223 112 5 0 1.0 46.800000000000004 14.0
224 112 5 0 1.741 46.800000000000004 14.0
225 113 5 0 1.0 46.800000000000004 17.0
226 113 5 0 1.741 46.800000000000004 17.0
227 114 5 0 1.0 46.800000000000004 20.0
228 114 5 0 1.741 46.800000000000004 20.0
229 115 5 0 1.0 46.800000000000004 23.0
230 115 5 0 1.741 46.800000000000004 23.0
231 116 5 0 1.0 46.800000000000004 26.0
232 116 5 0 1.741 46.800000000000004 26.0
233 117 5 0 1.0 46.800000000000004 29.0
234 117 5 0 1.741 46.800000000000004 29.0
235 118 5 0 1.0 46.800000000000004 32.0
236 118 5 0 1.741 46.800000000000004 32.0
237 119 5 0 1.0 46.800000000000004 35.0
238 119 5 0 1.741 46.800000000000004 35.0
239 120 5 0 1.0 46.800000000000004 38.0
240 120 5 0 1.741 46.800000000000004 38.0
241 121 5 0 6.2 0.0 5.0
242 121 5 0 6.941 0.0 5.0
243 122 5 0 6.2 0.0 8.0
244 122 5 0 6.941 0.0 8.0
245 123 5 0 6.2 0.0 11.0
246 123 5 0 6.941 0.0 11.0
247 124 5 0 6.2 0.0 14.0
248 124 5 0 6.941 0.0 14.0
249 125 5 0 6.2 0.0 17.0
250 125 5 0 6.941 0.0 17.0
251 126 5 0 6.2 0.0 20.0
252 126 5 0 6.941 0.0 20.0
253 127 5 0 6.2 0.0 23.0
254 127 5 0 6.941 0.0 23.0
255 128 5 0 6.2 0.0 26.0
256 128 5 0 6.941 0.0 26.0
257 129 5 0 6.2 0.0 29.0
258 129 5 0 6.941 0.0 29.0
259 130 5 0 6.2 0.0 32.0
260 130 5 0 6.941 0.0 32.0
261 131 5 0 6.2 0.0 35.0
262 131 5 0 6.941 0.0 35.0
263 132 5 0 6.2 0.0 38.0
264 132 5 0 6.941 0.0 38.0
265 133 5 0 6.2 5.2 5.0
266 133 5 0 6.941 5.2 5.0
267 134 5 0 6.2 5.2 8.0
268 134 5 0 6.941 5.2 8.0
269 135 5 0 6.2 5.2 11.0
270 135 5 0 6.941 5.2 11.0
271 136 5 0 6.2 5.2 14.0
272 136 5 0 6.941 5.2 14.0
273 137 5 0 6.2 5.2 17.0
274 137 5 0 6.941 5.2 17.0
275 138 5 0 6.2 5.2 20.0
276 138 5 0 6.941 5.2 20.0
277 139 5 0 6.2 5.2 23.0
278 139 5 0 6.941 5.2 23.0
279 140 5 0 6.2 5.2 26.0
280 140 5 0 6.941 5.2 26.0
281 141 5 0 6.2 5.2 29.0
282 141 5 0 6.941 5.2 29.0
283 142 5 0 6.2 5.2 32.0
284 142 5 0 6.941 5.2 32.0
285 143 5 0 6.2 5.2 35.0
286 143 5 0 6.941 5.2 35.0
287 144 5 0 6.2 5.2 38.0
288 144 5 0 6.941 5.2 38.0
289 145 5 0 6.2 10.4 5.0
290 145 5 0 6.941 10.4 5.0
291 146 5 0 6.2 10.4 8.0
292 146 5 0 6.941 10.4 8.0
293 147 5 0 6.2 10.4 11.0
294 147 5 0 6.941 10.4 11.0
295 148 5 0 6.2 10.4 14.0
296 148 5 0 6.941 10.4 14.0
297 149 5 0 6.2 10.4 17.0
298 149 5 0 6.941 10.4 17.0
299 150 5 0 6.2 10.4 20.0
300 150 5 0 6.941 10.4 20.0
301 151 5 0 6.2 10.4 23.0
302 151 5 0 6.941 10.4 23.0
303 152 5 0 6.2 10.4 26.0
304 152 5 0 6.941 10.4 26.0
305 153 5 0 6.2 10.4 29.0
306 153 5 0 6.941 10.4 29.0
307 154 5 0 6.2 10.4 32.0
308 154 5 0 6.941 10.4 32.0
309 155 5 0 6.2 10.4 35.0
310 155 5 0 6.941 10.4 35.0
311 156 5 0 6.2 10.4 38.0
312 156 5 0 6.941 10.4 38.0
313 157 5 0 6.2 15.600000000000001 5.0
314 157 5 0 6.941 15.600000000000001 5.0
315 158 5 0 6.2 15.600000000000001 8.0
316 158 5 0 6.941 15.600000000000001 8.0
317 159 5 0 6.2 15.600000000000001 11.0
318 159 5 0 6.941 15.600000000000001 11.0
319 160 5 0 6.2 15.600000000000001 14.0
320 160 5 0 6.941 15.600000000000001 14.0
321 161 5 0 6.2 15.600000000000001 17.0
322 161 5 0 6.941 15.600000000000001 17.0
323 162 5 0 6.2 15.600000000000001 20.0
324 162 5 0 6.941 15.600000000000001 20.0
325 163 5 0 6.2 15.600000000000001 23.0
326 163 5 0 6.941 15.600000000000001 23.0
327 164 5 0 6.2 15.600000000000001 26.0
328 164 5 0 6.941 15.600000000000001 26.0
329 165 5 0 6.2 15.600000000000001 29.0
330 165 5 0 6.941 15.600000000000001 29.0
331 166 5 0 6.2 15.600000000000001 32.0
332 166 5 0 6.941 15.600000000000001 32.0
333 167 5 0 6.2 15.600000000000001 35.0
334 167 5 0 6.941 15.600000000000001 35.0
335 168 5 0 6.2 15.600000000000001 38.0
336 168 5 0 6.941 15.600000000000001 38.0
337 169 5 0 6.2 20.8 5.0
338 169 5 0 6.941 20.8 5.0
339 170 5 0 6.2 20.8 8.0
340 170 5 0 6.941 20.8 8.0
341 171 5 0 6.2 20.8 11.0
342 171 5 0 6.941 20.8 11.0
343 172 5 0 6.2 20.8 14.0
344 172 5 0 6.941 20.8 14.0
345 173 5 0 6.2 20.8 17.0
346 173 5 0 6.941 20.8 17.0
347 174 5 0 6.2 20.8 20.0
348 174 5 0 6.941 20.8 20.0
349 175 5 0 6.2 20.8 23.0
350 175 5 0 6.941 20.8 23.0
351 176 5 0 6.2 20.8 26.0
352 176 5 0 6.941 20.8 26.0
353 177 5 0 6.2 20.8 29.0
354 177 5 0 6.941 20.8 29.0
355 178 5 0 6.2 20.8 32.0
356 178 5 0 6.941 20.8 32.0
357 179 5 0 6.2 20.8 35.0
358 179 5 0 6.941 20.8 35.0
359 180 5 0 6.2 20.8 38.0
360 180 5 0 6.941 20.8 38.0
361 181 5 0 6.2 26.0 5.0
362 181 5 0 6.941 26.0 5.0
363 182 5 0 6.2 26.0 8.0
364 182 5 0 6.941 26.0 8.0
365 183 5 0 6.2 26.0 11.0
366 183 5 0 6.941 26.0 11.0
367 184 5 0 6.2 26.0 14.0
368 184 5 0 6.941 26.0 14.0
369 185 5 0 6.2 26.0 17.0
370 185 5 0 6.941 26.0 17.0
371 186 5 0 6.2 26.0 20.0
372 186 5 0 6.941 26.0 20.0
373 187 5 0 6.2 26.0 23.0
374 187 5 0 6.941 26.0 23.0
375 188 5 0 6.2 26.0 26.0
376 188 5 0 6.941 26.0 26.0
377 189 5 0 6.2 26.0 29.0
378 189 5 0 6.941 26.0 29.0
379 190 5 0 6.2 26.0 32.0
380 190 5 0 6.941 26.0 32.0
381 191 5 0 6.2 26.0 35.0
382 191 5 0 6.941 26.0 35.0
383 192 5 0 6.2 26.0 38.0
384 192 5 0 6.941 26.0 38.0
385 193 5 0 6.2 31.2 5.0
386 193 5 0 6.941 31.2 5.0
387 194 5 0 6.2 31.2 8.0
388 194 5 0 6.941 31.2 8.0
389 195 5 0 6.2 31.2 11.0
390 195 5 0 6.941 31.2 11.0
391 196 5 0 6.2 31.2 14.0
392 196 5 0 6.941 31.2 14.0
393 197 5 0 6.2 31.2 17.0
394 197 5 0 6.941 31.2 17.0
395 198 5 0 6.2 31.2 20.0
396 198 5 0 6.941 31.2 20.0
397 199 5 0 6.2 31.2 23.0
398 199 5 0 6.941 31.2 23.0
399 200 5 0 6.2 31.2 26.0
400 200 5 0 6.941 31.2 26.0
401 201 5 0 6.2 31.2 29.0
402 201 5 0 6.941 31.2 29.0
403 202 5 0 6.2 31.2 32.0
404 202 5 0 6.941 31.2 32.0
405 203 5 0 6.2 31.2 35.0
406 203 5 0 6.941 31.2 35.0
407 204 5 0 6.2 31.2 38.0
408 204 5 0 6.941 31.2 38.0
409 205 5 0 6.2 36.4 5.0
410 205 5 0 6.941 36.4 5.0
411 206 5 0 6.2 36.4 8.0
412 206 5 0 6.941 36.4 8.0
413 207 5 0 6.2 36.4 11.0
414 207 5 0 6.941 36.4 11.0
415 208 5 0 6.2 36.4 14.0
416 208 5 0 6.941 36.4 14.0
417 209 5 0 6.2 36.4 17.0
418 209 5 0 6.941 36.4 17.0
419 210 5 0 6.2 36.4 20.0
420 210 5 0 6.941 36.4 20.0
421 211 5 0 6.2 36.4 23.0
422 211 5 0 6.941 36.4 23.0
423 212 5 0 6.2 36.4 26.0
424 212 5 0 6.941 36.4 26.0
425 213 5 0 6.2 36.4 29.0
426 213 5 0 6.941 36.4 29.0
427 214 5 0 6.2 36.4 32.0
428 214 5 0 6.941 36.4 32.0
429 215 5 0 6.2 36.4 35.0
430 215 5 0 6.941 36.4 35.0
431 216 5 0 6.2 36.4 38.0
432 216 5 0 6.941 36.4 38.0
433 217 5 0 6.2 41.6 5.0
434 217 5 0 6.941 41.6 5.0
435 218 5 0 6.2 41.6 8.0
436 218 5 0 6.941 41.6 8.0
437 219 5 0 6.2 41.6 11.0
438 219 5 0 6.941 41.6 11.0
439 220 5 0 6.2 41.6 14.0
440 220 5 0 6.941 41.6 14.0
441 221 5 0 6.2 41.6 17.0
442 221 5 0 6.941 41.6 17.0
443 222 5 0 6.2 41.6 20.0
444 222 5 0 6.941 41.6 20.0
445 223 5 0 6.2 41.6 23.0
446 223 5 0 6.941 41.6 23.0
447 224 5 0 6.2 41.6 26.0
448 224 5 0 6.941 41.6 26.0
449 225 5 0 6.2 41.6 29.0
450 225 5 0 6.941 41.6 29.0
451 226 5 0 6.2 41.6 32.0
452 226 5 0 6.941 41.6 32.0
453 227 5 0 6.2 41.6 35.0
454 227 5 0 6.941 41.6 35.0
455 228 5 0 6.2 41.6 38.0
456 228 5 0 6.941 41.6 38.0
457 229 5 0 6.2 46.800000000000004 5.0
458 229 5 0 6.941 46.800000000000004 5.0
459 230 5 0 6.2 46.800000000000004 8.0
460 230 5 0 6.941 46.800000000000004 8.0
461 231 5 0 6.2 46.800000000000004 11.0
462 231 5 0 6.941 46.800000000000004 11.0
463 232 5 0 6.2 46.800000000000004 14.0
464 232 5 0 6.941 46.800000000000004 14.0
465 233 5 0 6.2 46.800000000000004 17.0
466 233 5 0 6.941 46.800000000000004 17.0
467 234 5 0 6.2 46.800000000000004 20.0
468 234 5 0 6.941 46.800000000000004 20.0
469 235 5 0 6.2 46.800000000000004 23.0
470 235 5 0 6.941 46.800000000000004 23.0
471 236 5 0 6.2 46.800000000000004 26.0
472 236 5 0 6.941 46.800000000000004 26.0
473 237 5 0 6.2 46.800000000000004 29.0
474 237 5 0 6.941 46.800000000000004 29.0
475 238 5 0 6.2 46.800000000000004 32.0
476 238 5 0 6.941 46.800000000000004 32.0
477 239 5 0 6.2 46.800000000000004 35.0
478 239 5 0 6.941 46.800000000000004 35.0
479 240 5 0 6.2 46.800000000000004 38.0
480 240 5 0 6.941 46.800000000000004 38.0
481 241 5 0 11.4 0.0 5.0
482 241 5 0 12.141 0.0 5.0
483 242 5 0 11.4 0.0 8.0
484 242 5 0 12.141 0.0 8.0
485 243 5 0 11.4 0.0 11.0
486 243 5 0 12.141 0.0 11.0
487 244 5 0 11.4 0.0 14.0
488 244 5 0 12.141 0.0 14.0
489 245 5 0 11.4 0.0 17.0
490 245 5 0 12.141 0.0 17.0
491 246 5 0 11.4 0.0 20.0
492 246 5 0 12.141 0.0 20.0
493 247 5 0 11.4 0.0 23.0
494 247 5 0 12.141 0.0 23.0
495 248 5 0 11.4 0.0 26.0
496 248 5 0 12.141 0.0 26.0
497 249 5 0 11.4 0.0 29.0
498 249 5 0 12.141 0.0 29.0
499 250 5 0 11.4 0.0 32.0
500 250 5 0 12.141 0.0 32.0
501 251 5 0 11.4 0.0 35.0
502 251 5 0 12.141 0.0 35.0
503 252 5 0 11.4 0.0 38.0
504 252 5 0 12.141 0.0 38.0
505 253 5 0 11.4 5.2 5.0
506 253 5 0 12.141 5.2 5.0
507 254 5 0 11.4 5.2 8.0
508 254 5 0 12.141 5.2 8.0
509 255 5 0 11.4 5.2 11.0
510 255 5 0 12.141 5.2 11.0
511 256 5 0 11.4 5.2 14.0
512 256 5 0 12.141 5.2 14.0
513 257 5 0 11.4 5.2 17.0
514 257 5 0 12.141 5.2 17.0
515 258 5 0 11.4 5.2 20.0
516 258 5 0 12.141 5.2 20.0
517 259 5 0 11.4 5.2 23.0
518 259 5 0 12.141 5.2 23.0
519 260 5 0 11.4 5.2 26.0
520 260 5 0 12.141 5.2 26.0
521 261 5 0 11.4 5.2 29.0
522 261 5 0 12.141 5.2 29.0
523 262 5 0 11.4 5.2 32.0
524 262 5 0 12.141 5.2 32.0
525 263 5 0 11.4 5.2 35.0
526 263 5 0 12.141 5.2 35.0
527 264 5 0 11.4 5.2 38.0
528 264 5 0 12.141 5.2 38.0
529 265 5 0 11.4 10.4 5.0
530 265 5 0 12.141 10.4 5.0
531 266 5 0 11.4 10.4 8.0
532 266 5 0 12.141 10.4 8.0
533 267 5 0 11.4 10.4 11.0
534 267 5 0 12.141 10.4 11.0
535 268 5 0 11.4 10.4 14.0
536 268 5 0 12.141 10.4 14.0
537 269 5 0 11.4 10.4 17.0
538 269 5 0 12.141 10.4 17.0
539 270 5 0 11.4 10.4 20.0
540 270 5 0 12.141 10.4 20.0
541 271 5 0 11.4 10.4 23.0
542 271 5 0 12.141 10.4 23.0
543 272 5 0 11.4 10.4 26.0
544 272 5 0 12.141 10.4 26.0
545 273 5 0 11.4 10.4 29.0
546 273 5 0 12.141 10.4 29.0
547 274 5 0 11.4 10.4 32.0
548 274 5 0 12.141 10.4 32.0
549 275 5 0 11.4 10.4 35.0
550 275 5 0 12.141 10.4 35.0
551 276 5 0 11.4 10.4 38.0
552 276 5 0 12.141 10.4 38.0
553 277 5 0 11.4 15.600000000000001 5.0
554 277 5 0 12.141 15.600000000000001 5.0
555 278 5 0 11.4 15.600000000000001 8.0
556 278 5 0 12.141 15.600000000000001 8.0
557 279 5 0 11.4 15.600000000000001 11.0
558 279 5 0 12.141 15.600000000000001 11.0
559 280 5 0 11.4 15.600000000000001 14.0
560 280 5 0 12.141 15.600000000000001 14.0
561 281 5 0 11.4 15.600000000000001 17.0
562 281 5 0 12.141 15.600000000000001 17.0
563 282 5 0 11.4 15.600000000000001 20.0
564 282 5 0 12.141 15.600000000000001 20.0
565 283 5 0 11.4 15.600000000000001 23.0
566 283 5 0 12.141 15.600000000000001 23.0
567 284 5 0 11.4 15.600000000000001 26.0
568 284 5 0 12.141 15.600000000000001 26.0
569 285 5 0 11.4 15.600000000000001 29.0
570 285 5 0 12.141 15.600000000000001 29.0
571 286 5 0 11.4 15.600000000000001 32.0
572 286 5 0 12.141 15.600000000000001 32.0
573 287 5 0 11.4 15.600000000000001 35.0
574 287 5 0 12.141 15.600000000000001 35.0
575 288 5 0 11.4 15.600000000000001 38.0
576 288 5 0 12.141 15.600000000000001 38.0
577 289 5 0 11.4 20.8 5.0
578 289 5 0 12.141 20.8 5.0
579 290 5 0 11.4 20.8 8.0
580 290 5 0 12.141 20.8 8.0
581 291 5 0 11.4 20.8 11.0
582 291 5 0 12.141 20.8 11.0
583 292 5 0 11.4 20.8 14.0
584 292 5 0 12.141 20.8 14.0
585 293 5 0 11.4 20.8 17.0
586 293 5 0 12.141 20.8 17.0
587 294 5 0 11.4 20.8 20.0
588 294 5 0 12.141 20.8 20.0
589 295 5 0 11.4 20.8 23.0
590 295 5 0 12.141 20.8 23.0
591 296 5 0 11.4 20.8 26.0
592 296 5 0 12.141 20.8 26.0
593 297 5 0 11.4 20.8 29.0
594 297 5 0 12.141 20.8 29.0
595 298 5 0 11.4 20.8 32.0
596 298 5 0 12.141 20.8 32.0
597 299 5 0 11.4 20.8 35.0
598 299 5 0 12.141 20.8 35.0
599 300 5 0 11.4 20.8 38.0
600 300 5 0 12.141 20.8 38.0
601 301 5 0 11.4 26.0 5.0
602 301 5 0 12.141 26.0 5.0
603 302 5 0 11.4 26.0 8.0
604 302 5 0 12.141 26.0 8.0
605 303 5 0 11.4 26.0 11.0
606 303 5 0 12.141 26.0 11.0
607 304 5 0 11.4 26.0 14.0
608 304 5 0 12.141 26.0 14.0
609 305 5 0 11.4 26.0 17.0
610 305 5 0 12.141 26.0 17.0
611 306 5 0 11.4 26.0 20.0
612 306 5 0 12.141 26.0 20.0
613 307 5 0 11.4 26.0 23.0
614 307 5 0 12.141 26.0 23.0
615 308 5 0 11.4 26.0 26.0
616 308 5 0 12.141 26.0 26.0
617 309 5 0 11.4 26.0 29.0
618 309 5 0 12.141 26.0 29.0
619 310 5 0 11.4 26.0 32.0
620 310 5 0 12.141 26.0 32.0
621 311 5 0 11.4 26.0 35.0
622 311 5 0 12.141 26.0 35.0
623 312 5 0 11.4 26.0 38.0
624 312 5 0 12.141 26.0 38.0
625 313 5 0 11.4 31.2 5.0
626 313 5 0 12.141 31.2 5.0
627 314 5 0 11.4 31.2 8.0
628 314 5 0 12.141 31.2 8.0
629 315 5 0 11.4 31.2 11.0
630 315 5 0 12.141 31.2 11.0
631 316 5 0 11.4 31.2 14.0
632 316 5 0 12.141 31.2 14.0
633 317 5 0 11.4 31.2 17.0
634 317 5 0 12.141 31.2 17.0
635 318 5 0 11.4 31.2 20.0
636 318 5 0 12.141 31.2 20.0
637 319 5 0 11.4 31.2 23.0
638 319 5 0 12.141 31.2 23.0
639 320 5 0 11.4 31.2 26.0
640 320 5 0 12.141 31.2 26.0
641 321 5 0 11.4 31.2 29.0
642 321 5 0 12.141 31.2 29.0
643 322 5 0 11.4 31.2 32.0
644 322 5 0 12.141 31.2 32.0
645 323 5 0 11.4 31.2 35.0
646 323 5 0 12.141 31.2 35.0
647 324 5 0 11.4 31.2 38.0
648 324 5 0 12.141 31.2 38.0
649 325 5 0 11.4 36.4 5.0
650 325 5 0 12.141 36.4 5.0
651 326 5 0 11.4 36.4 8.0
652 326 5 0 12.141 36.4 8.0
653 327 5 0 11.4 36.4 11.0
654 327 5 0 12.141 36.4 11.0
655 328 5 0 11.4 36.4 14.0
656 328 5 0 12.141 36.4 14.0
657 329 5 0 11.4 36.4 17.0
658 329 5 0 12.141 36.4 17.0
659 330 5 0 11.4 36.4 20.0
660 330 5 0 12.141 36.4 20.0
661 331 5 0 11.4 36.4 23.0
662 331 5 0 12.141 36.4 23.0
663 332 5 0 11.4 36.4 26.0
664 332 5 0 12.141 36.4 26.0
665 333 5 0 11.4 36.4 29.0
666 333 5 0 12.141 36.4 29.0
667 334 5 0 11.4 36.4 32.0
668 334 5 0 12.141 36.4 32.0
669 335 5 0 11.4 36.4 35.0
670 335 5 0 12.141 36.4 35.0
671 336 5 0 11.4 36.4 38.0
672 336 5 0 12.141 36.4 38.0
673 337 5 0 11.4 41.6 5.0
674 337 5 0 12.141 41.6 5.0
675 338 5 0 11.4 41.6 8.0
676 338 5 0 12.141 41.6 8.0
677 339 5 0 11.4 41.6 11.0
678 339 5 0 12.141 41.6 11.0
679 340 5 0 11.4 41.6 14.0
680 340 5 0 12.141 41.6 14.0
681 341 5 0 11.4 41.6 17.0
682 341 5 0 12.141 41.6 17.0
683 342 5 0 11.4 41.6 20.0
684 342 5 0 12.141 41.6 20.0
685 343 5 0 11.4 41.6 23.0
686 343 5 0 12.141 41.6 23.0
687 344 5 0 11.4 41.6 26.0
688 344 5 0 12.141 41.6 26.0
689 345 5 0 11.4 41.6 29.0
690 345 5 0 12.141 41.6 29.0
691 346 5 0 11.4 41.6 32.0
692 346 5 0 12.141 41.6 32.0
693 347 5 0 11.4 41.6 35.0
694 347 5 0 12.141 41.6 35.0
695 348 5 0 11.4 41.6 38.0
696 348 5 0 12.141 41.6 38.0
697 349 5 0 11.4 46.800000000000004 5.0
698 349 5 0 12.141 46.800000000000004 5.0
699 350 5 0 11.4 46.800000000000004 8.0
700 350 5 0 12.141 46.800000000000004 8.0
701 351 5 0 11.4 46.800000000000004 11.0
702 351 5 0 12.141 46.800000000000004 11.0
703 352 5 0 11.4 46.800000000000004 14.0
704 352 5 0 12.141 46.800000000000004 14.0
705 353 5 0 11.4 46.800000000000004 17.0
706 353 5 0 12.141 46.800000000000004 17.0
707 354 5 0 11.4 46.800000000000004 20.0
708 354 5 0 12.141 46.800000000000004 20.0
709 355 5 0 11.4 46.800000000000004 23.0
710 355 5 0 12.141 46.800000000000004 23.0
711 356 5 0 11.4 46.800000000000004 26.0
712 356 5 0 12.141 46.800000000000004 26.0
713 357 5 0 11.4 46.800000000000004 29.0
714 357 5 0 12.141 46.800000000000004 29.0
715 358 5 0 11.4 46.800000000000004 32.0
716 358 5 0 12.141 46.800000000000004 32.0
717 359 5 0 11.4 46.800000000000004 35.0
718 359 5 0 12.141 46.800000000000004 35.0
719 360 5 0 11.4 46.800000000000004 38.0
720 360 5 0 12.141 46.800000000000004 38.0
721 361 5 0 16.6 0.0 5.0
722 361 5 0 17.341 0.0 5.0
723 362 5 0 16.6 0.0 8.0
724 362 5 0 17.341 0.0 8.0
725 363 5 0 16.6 0.0 11.0
726 363 5 0 17.341 0.0 11.0
727 364 5 0 16.6 0.0 14.0
728 364 5 0 17.341 0.0 14.0
729 365 5 0 16.6 0.0 17.0
730 365 5 0 17.341 0.0 17.0
731 366 5 0 16.6 0.0 20.0
732 366 5 0 17.341 0.0 20.0
733 367 5 0 16.6 0.0 23.0
734 367 5 0 17.341 0.0 23.0
735 368 5 0 16.6 0.0 26.0
736 368 5 0 17.341 0.0 26.0
737 369 5 0 16.6 0.0 29.0
738 369 5 0 17.341 0.0 29.0
739 370 5 0 16.6 0.0 32.0
740 370 5 0 17.341 0.0 32.0
741 371 5 0 16.6 0.0 35.0
742 371 5 0 17.341 0.0 35.0
743 372 5 0 16.6 0.0 38.0
744 372 5 0 17.341 0.0 38.0
745 373 5 0 16.6 5.2 5.0
746 373 5 0 17.341 5.2 5.0
747 374 5 0 16.6 5.2 8.0
748 374 5 0 17.341 5.2 8.0
749 375 5 0 16.6 5.2 11.0
750 375 5 0 17.341 5.2 11.0
751 376 5 0 16.6 5.2 14.0
752 376 5 0 17.341 5.2 14.0
753 377 5 0 16.6 5.2 17.0
754 377 5 0 17.341 5.2 17.0
755 378 5 0 16.6 5.2 20.0
756 378 5 0 17.341 5.2 20.0
757 379 5 0 16.6 5.2 23.0
758 379 5 0 17.341 5.2 23.0
759 380 5 0 16.6 5.2 26.0
760 380 5 0 17.341 5.2 26.0
761 381 5 0 16.6 5.2 29.0
762 381 5 0 17.341 5.2 29.0
763 382 5 0 16.6 5.2 32.0
764 382 5 0 17.341 5.2 32.0
765 383 5 0 16.6 5.2 35.0
766 383 5 0 17.341 5.2 35.0
767 384 5 0 16.6 5.2 38.0
768 384 5 0 17.341 5.2 38.0
769 385 5 0 16.6 10.4 5.0
770 385 5 0 17.341 10.4 5.0
771 386 5 0 16.6 10.4 8.0
772 386 5 0 17.341 10.4 8.0
773 387 5 0 16.6 10.4 11.0
774 387 5 0 17.341 10.4 11.0
775 388 5 0 16.6 10.4 14.0
776 388 5 0 17.341 10.4 14.0
777 389 5 0 16.6 10.4 17.0
778 389 5 0 17.341 10.4 17.0
779 390 5 0 16.6 10.4 20.0
780 390 5 0 17.341 10.4 20.0
781 391 5 0 16.6 10.4 23.0
782 391 5 0 17.341 10.4 23.0
783 392 5 0 16.6 10.4 26.0
784 392 5 0 17.341 10.4 26.0
785 393 5 0 16.6 10.4 29.0
786 393 5 0 17.341 10.4 29.0
787 394 5 0 16.6 10.4 32.0
788 394 5 0 17.341 10.4 32.0
789 395 5 0 16.6 10.4 35.0
790 395 5 0 17.341 10.4 35.0
791 396 5 0 16.6 10.4 38.0
792 396 5 0 17.341 10.4 38.0
793 397 5 0 16.6 15.600000000000001 5.0
794 397 5 0 17.341 15.600000000000001 5.0
795 398 5 0 16.6 15.600000000000001 8.0
796 398 5 0 17.341 15.600000000000001 8.0
797 399 5 0 16.6 15.600000000000001 11.0
798 399 5 0 17.341 15.600000000000001 11.0
799 400 5 0 16.6 15.600000000000001 14.0
800 400 5 0 17.341 15.600000000000001 14.0
801 401 5 0 16.6 15.600000000000001 17.0
802 401 5 0 17.341 15.600000000000001 17.0
803 402 5 0 16.6 15.600000000000001 20.0
804 402 5 0 17.341 15.600000000000001 20.0
805 403 5 0 16.6 15.600000000000001 23.0
806 403 5 0 17.341 15.600000000000001 23.0
807 404 5 0 16.6 15.600000000000001 26.0
808 404 5 0 17.341 15.600000000000001 26.0
809 405 5 0 16.6 15.600000000000001 29.0
810 405 5 0 17.341 15.600000000000001 29.0
811 406 5 0 16.6 15.600000000000001 32.0
812 406 5 0 17.341 15.600000000000001 32.0
813 407 5 0 16.6 15.600000000000001 35.0
814 407 5 0 17.341 15.600000000000001 35.0
815 408 5 0 16.6 15.600000000000001 38.0
816 408 5 0 17.341 15.600000000000001 38.0
817 409 5 0 16.6 20.8 5.0
818 409 5 0 17.341 20.8 5.0
819 410 5 0 16.6 20.8 8.0
820 410 5 0 17.341 20.8 8.0
821 411 5 0 16.6 20.8 11.0
822 411 5 0 17.341 20.8 11.0
823 412 5 0 16.6 20.8 14.0
824 412 5 0 17.341 20.8 14.0
825 413 5 0 16.6 20.8 17.0
826 413 5 0 17.341 20.8 17.0
827 414 5 0 16.6 20.8 20.0
828 414 5 0 17.341 20.8 20.0
829 415 5 0 16.6 20.8 23.0
830 415 5 0 17.341 20.8 23.0
831 416 5 0 16.6 20.8 26.0
832 416 5 0 17.341 20.8 26.0
833 417 5 0 16.6 20.8 29.0
834 417 5 0 17.341 20.8 29.0
835 418 5 0 16.6 20.8 32.0
836 418 5 0 17.341 20.8 32.0
837 419 5 0 16.6 20.8 35.0
838 419 5 0 17.341 20.8 35.0
839 420 5 0 16.6 20.8 38.0
840 420 5 0 17.341 20.8 38.0
841 421 5 0 16.6 26.0 5.0
842 421 5 0 17.341 26.0 5.0
843 422 5 0 16.6 26.0 8.0
844 422 5 0 17.341 26.0 8.0
845 423 5 0 16.6 26.0 11.0
846 423 5 0 17.341 26.0 11.0
847 424 5 0 16.6 26.0 14.0
848 424 5 0 17.341 26.0 14.0
849 425 5 0 16.6 26.0 17.0
850 425 5 0 17.341 26.0 17.0
851 426 5 0 16.6 26.0 20.0
852 426 5 0 17.341 26.0 20.0
853 427 5 0 16.6 26.0 23.0
854 427 5 0 17.341 26.0 23.0
855 428 5 0 16.6 26.0 26.0
856 428 5 0 17.341 26.0 26.0
857 429 5 0 16.6 26.0 29.0
858 429 5 0 17.341 26.0 29.0
859 430 5 0 16.6 26.0 32.0
860 430 5 0 17.341 26.0 32.0
861 431 5 0 16.6 26.0 35.0
862 431 5 0 17.341 26.0 35.0
863 432 5 0 16.6 26.0 38.0
864 432 5 0 17.341 26.0 38.0
865 433 5 0 16.6 31.2 5.0
866 433 5 0 17.341 31.2 5.0
867 434 5 0 16.6 31.2 8.0
868 434 5 0 17.341 31.2 8.0
869 435 5 0 16.6 31.2 11.0
870 435 5 0 17.341 31.2 11.0
871 436 5 0 16.6 31.2 14.0
872 436 5 0 17.341 31.2 14.0
873 437 5 0 16.6 31.2 17.0
874 437 5 0 17.341 31.2 17.0
875 438 5 0 16.6 31.2 20.0
876 438 5 0 17.341 31.2 20.0
877 439 5 0 16.6 31.2 23.0
878 439 5 0 17.341 31.2 23.0
879 440 5 0 16.6 31.2 26.0
880 440 5 0 17.341 31.2 26.0
881 441 5 0 16.6 31.2 29.0
882 441 5 0 17.341 31.2 29.0
883 442 5 0 16.6 31.2 32.0
884 442 5 0 17.341 31.2 32.0
885 443 5 0 16.6 31.2 35.0
886 443 5 0 17.341 31.2 35.0
887 444 5 0 16.6 31.2 38.0
888 444 5 0 17.341 31.2 38.0
889 445 5 0 16.6 36.4 5.0
890 445 5 0 17.341 36.4 5.0
891 446 5 0 16.6 36.4 8.0
892 446 5 0 17.341 36.4 8.0
893 447 5 0 16.6 36.4 11.0
894 447 5 0 17.341 36.4 11.0
895 448 5 0 16.6 36.4 14.0
896 448 5 0 17.341 36.4 14.0
897 449 5 0 16.6 36.4 17.0
898 449 5 0 17.341 36.4 17.0
899 450 5 0 16.6 36.4 20.0
900 450 5 0 17.341 36.4 20.0
901 451 5 0 16.6 36.4 23.0
902 451 5 0 17.341 36.4 23.0
903 452 5 0 16.6 36.4 26.0
904 452 5 0 17.341 36.4 26.0
905 453 5 0 16.6 36.4 29.0
906 453 5 0 17.341 36.4 29.0
907 454 5 0 16.6 36.4 32.0
908 454 5 0 17.341 36.4 32.0
909 455 5 0 16.6 36.4 35.0
910 455 5 0 17.341 36.4 35.0
911 456 5 0 16.6 36.4 38.0
912 456 5 0 17.341 36.4 38.0
913 457 5 0 16.6 41.6 5.0
914 457 5 0 17.341 41.6 5.0
915 458 5 0 16.6 41.6 8.0
916 458 5 0 17.341 41.6 8.0
917 459 5 0 16.6 41.6 11.0
918 459 5 0 17.341 41.6 11.0
919 460 5 0 16.6 41.6 14.0
920 460 5 0 17.341 41.6 14.0
921 461 5 0 16.6 41.6 17.0
922 461 5 0 17.341 41.6 17.0
923 462 5 0 16.6 41.6 20.0
924 462 5 0 17.341 41.6 20.0
925 463 5 0 16.6 41.6 23.0
926 463 5 0 17.341 41.6 23.0
927 464 5 0 16.6 41.6 26.0
928 464 5 0 17.341 41.6 26.0
929 465 5 0 16.6 41.6 29.0
930 465 5 0 17.341 41.6 29.0
931 466 5 0 16.6 41.6 32.0
932 466 5 0 17.341 41.6 32.0
933 467 5 0 16.6 41.6 35.0
934 467 5 0 17.341 41.6 35.0
935 468 5 0 16.6 41.6 38.0
936 468 5 0 17.341 41.6 38.0
937 469 5 0 16.6 46.800000000000004 5.0
938 469 5 0 17.341 46.800000000000004 5.0
939 470 5 0 16.6 46.800000000000004 8.0
940 470 5 0 17.341 46.800000000000004 8.0
941 471 5 0 16.6 46.800000000000004 11.0
942 471 5 0 17.341 46.800000000000004 11.0
943 472 5 0 16.6 46.800000000000004 14.0
944 472 5 0 17.341 46.800000000000004 14.0
945 473 5 0 16.6 46.800000000000004 17.0
946 473 5 0 17.341 46.800000000000004 17.0
947 474 5 0 16.6 46.800000000000004 20.0
948 474 5 0 17.341 46.800000000000004 20.0
949 475 5 0 16.6 46.800000000000004 23.0
950 475 5 0 17.341 46.800000000000004 23.0
951 476 5 0 16.6 46.800000000000004 26.0
952 476 5 0 17.341 46.800000000000004 26.0
953 477 5 0 16.6 46.800000000000004 29.0
954 477 5 0 17.341 46.800000000000004 29.0
955 478 5 0 16.6 46.800000000000004 32.0
956 478 5 0 17.341 46.800000000000004 32.0
957 479 5 0 16.6 46.800000000000004 35.0
958 479 5 0 17.341 46.800000000000004 35.0
959 480 5 0 16.6 46.800000000000004 38.0
960 480 5 0 17.341 46.800000000000004 38.0
961 481 5 0 21.8 0.0 5.0
962 481 5 0 22.541 0.0 5.0
963 482 5 0 21.8 0.0 8.0
964 482 5 0 22.541 0.0 8.0
965 483 5 0 21.8 0.0 11.0
966 483 5 0 22.541 0.0 11.0
967 484 5 0 21.8 0.0 14.0
968 484 5 0 22.541 0.0 14.0
969 485 5 0 21.8 0.0 17.0
970 485 5 0 22.541 0.0 17.0
971 486 5 0 21.8 0.0 20.0
972 486 5 0 22.541 0.0 20.0
973 487 5 0 21.8 0.0 23.0
974 487 5 0 22.541 0.0 23.0
975 488 5 0 21.8 0.0 26.0
976 488 5 0 22.541 0.0 26.0
977 489 5 0 21.8 0.0 29.0
978 489 5 0 22.541 0.0 29.0
979 490 5 0 21.8 0.0 32.0
980 490 5 0 22.541 0.0 32.0
981 491 5 0 21.8 0.0 35.0
982 491 5 0 22.541 0.0 35.0
983 492 5 0 21.8 0.0 38.0
984 492 5 0 22.541 0.0 38.0
985 493 5 0 21.8 5.2 5.0
986 493 5 0 22.541 5.2 5.0
987 494 5 0 21.8 5.2 8.0
988 494 5 0 22.541 5.2 8.0
989 495 5 0 21.8 5.2 11.0
990 495 5 0 22.541 5.2 11.0
991 496 5 0 21.8 5.2 14.0
992 496 5 0 22.541 5.2 14.0
993 497 5 0 21.8 5.2 17.0
994 497 5 0 22.541 5.2 17.0
995 498 5 0 21.8 5.2 20.0
996 498 5 0 22.541 5.2 20.0
997 499 5 0 21.8 5.2 23.0
998 499 5 0 22.541 5.2 23.0
999 500 5 0 21.8 5.2 26.0
1000 500 5 0 22.541 5.2 26.0
1001 501 5 0 21.8 5.2 29.0
1002 501 5 0 22.541 5.2 29.0
1003 502 5 0 21.8 5.2 32.0
1004 502 5 0 22.541 5.2 32.0